
Host: luke-pc

Timers On : Wed Feb 22 22:03:46 2023
Timers Off: Wed Feb 22 22:03:48 2023

Wall Time:        1.96 seconds

                                                       Time (seconds)
Module                                       User      System        Wall        Calls

--------------------------------------------------------------------------------------

**************************************************************************************
